LAMMPS data file

       192 atoms
         2 atom types

  0.000000000000  12.618500410000  xlo xhi
  0.000000000000  12.618500410000  ylo yhi
  0.000000000000  12.618500410000  zlo zhi

Masses

  1  15.9994
  2   1.0080

Atoms

    1	   1      6.444531710000    1.085506500000    6.091993860000
    2	   2      7.158338850000    1.395932430000    6.660224340000
    3	   2      5.763533560000    0.737736530000    6.716422960000
    4	   1      8.636330790000    2.431717440000    2.468315340000
    5	   2      8.894145930000    2.386779710000    3.400148780000
    6	   2      8.525097740000    3.371843090000    2.245923320000
    7	   1      6.691604550000    2.306604070000   11.149075850000
    8	   2      6.149780010000    2.660724170000   10.429659430000
    9	   2      7.204377270000    3.106873470000   11.351327380000
   10	   1      4.217828110000   10.424261830000    5.335482120000
   11	   2      4.552818450000   10.278314750000    6.230479530000
   12	   2      4.729351960000   11.125897890000    4.934043000000
   13	   1      5.383425580000    2.294893380000    3.968993110000
   14	   2      5.570489720000    1.881616570000    3.104852020000
   15	   2      5.784594820000    1.723429620000    4.659881580000
   16	   1      2.521381230000    3.987583100000    6.628738300000
   17	   2      2.094409310000    3.540031480000    5.871591550000
   18	   2      3.413335870000    4.200740970000    6.327424800000
   19	   1     12.520914840000    4.857767400000   11.613534680000
   20	   2     11.727466540000    4.728706370000   11.082187850000
   21	   2     12.381159140000    5.822854330000   11.981418680000
   22	   1      6.273872060000   10.149883440000    8.570924490000
   23	   2      5.744377350000   10.860938860000    8.183566770000
   24	   2      6.057544420000   10.123107080000    9.517093340000
   25	   1      9.024588110000    1.578932500000    7.673492860000
   26	   2      9.422000190000    0.692481290000    7.760542510000
   27	   2      9.161539170000    1.963109860000    8.544571460000
   28	   1      3.175645340000   10.299587680000   12.370840190000
   29	   2      2.954332850000   10.379705110000   13.303515020000
   30	   2      2.267450250000   10.226084960000   12.005866670000
   31	   1     10.545760910000   12.396558200000    6.465963390000
   32	   2     10.670276310000   11.574904750000    5.978432430000
   33	   2     10.049921870000   12.979076470000    5.869686510000
   34	   1      5.536357790000    5.488573090000    7.448857140000
   35	   2      6.202644810000    4.946298740000    7.018001050000
   36	   2      5.095235670000    5.962768780000    6.725577730000
   37	   1     11.264330640000    5.685215340000    2.616590790000
   38	   2     11.088537980000    4.978890770000    3.367329200000
   39	   2     12.002744520000    5.310399120000    2.052096300000
   40	   1      3.006160470000   11.803297630000    2.178982410000
   41	   2      3.936755630000   11.523574560000    2.088228520000
   42	   2      2.957417960000   12.742957600000    2.395447640000
   43	   1      2.268455690000    1.970772340000   11.775515830000
   44	   2      3.086187940000    1.826449840000   11.294705420000
   45	   2      1.857724220000    2.556661470000   11.103513690000
   46	   1      4.749672370000   12.470748840000    7.843358750000
   47	   2      4.833160660000   12.784921350000    8.757459460000
   48	   2      3.806519830000   12.257014170000    7.758584560000
   49	   1      0.451021970000    0.309722130000    4.173308430000
   50	   2      1.032752820000   -0.316619950000    4.611858750000
   51	   2     -0.480944290000    0.040906460000    4.184479360000
   52	   1      2.620332070000    7.140082240000   11.226176970000
   53	   2      1.842293410000    7.502462790000   11.577180210000
   54	   2      2.658983180000    7.358791180000   10.256512650000
   55	   1      1.130491850000    6.888193880000    2.708926920000
   56	   2      1.994834030000    6.433736500000    2.587237330000
   57	   2      0.651089050000    6.726424410000    1.857740090000
   58	   1      0.441521120000    9.873600020000   11.625229500000
   59	   2      0.370111830000    8.964632330000   11.962315380000
   60	   2     -0.065568230000   10.397485460000   12.270878610000
   61	   1      0.805291290000    6.171687940000    7.330427280000
   62	   2      1.153881490000    6.811727780000    7.974753450000
   63	   2      1.421121270000    5.435708280000    7.166752770000
   64	   1      8.991461620000    3.341865200000   12.233677450000
   65	   2      8.775980660000    3.759666480000   13.075862980000
   66	   2      9.476029190000    4.044697200000   11.758687990000
   67	   1      9.212446020000    6.285090620000   11.256498820000
   68	   2      9.015327510000    7.028531680000   10.651702190000
   69	   2      8.446038670000    6.346581010000   11.842880090000
   70	   1      9.318069790000    3.488235610000    5.225360340000
   71	   2      9.712200970000    2.870844560000    5.852223660000
   72	   2      9.726224170000    4.356424910000    5.344266460000
   73	   1      7.188184440000   11.338150870000    4.637137540000
   74	   2      7.192999960000   10.565446310000    5.238626820000
   75	   2      7.592105410000   12.046401640000    5.140908950000
   76	   1      8.703377540000    8.357136900000    9.651239760000
   77	   2      7.740539610000    8.546794010000    9.521485510000
   78	   2      9.149368100000    9.124496770000   10.047699320000
   79	   1      5.751997500000   11.589774630000    2.379228350000
   80	   2      6.000128690000   12.194147920000    1.665590550000
   81	   2      6.156235970000   11.998087760000    3.164691380000
   82	   1      6.466333810000    1.264389560000    1.220261480000
   83	   2      6.521050740000    1.639650290000    0.327498250000
   84	   2      7.292485270000    1.588494730000    1.643830790000
   85	   1     -0.333581670000    6.941482030000    4.980054960000
   86	   2      0.091092040000    6.567512500000    5.776233820000
   87	   2      0.284501540000    6.979159450000    4.225390050000
   88	   1      6.534915180000    4.514897610000    4.892444380000
   89	   2      7.474045970000    4.437103270000    4.708571170000
   90	   2      6.160469390000    3.668245820000    4.518167920000
   91	   1      7.571573330000    9.347068700000    6.406748460000
   92	   2      7.649626970000    8.392856360000    6.635988030000
   93	   2      7.222263460000    9.813591330000    7.176330870000
   94	   1      1.393440010000   12.155941320000   10.090033500000
   95	   2      0.814705350000   11.603004060000   10.642335750000
   96	   2      1.919886660000   12.705015590000   10.673186790000
   97	   1     11.096263960000    1.516833550000    0.951360080000
   98	   2     11.833725320000    2.017117680000    1.319868500000
   99	   2     10.429924020000    2.158000530000    0.650194740000
  100	   1      1.037674170000    2.855821220000    4.581171760000
  101	   2      0.866342470000    1.905471880000    4.766785960000
  102	   2      1.229077570000    2.973838320000    3.635135210000
  103	   1      2.755653270000    7.916914380000    8.609236920000
  104	   2      2.979627520000    8.860384420000    8.534464180000
  105	   2      2.968567720000    7.629200730000    7.704661400000
  106	   1      9.907573200000    6.156394720000    4.530386620000
  107	   2      9.118887490000    6.709437820000    4.644122680000
  108	   2     10.754732990000    6.529147150000    4.909452130000
  109	   1     10.366105250000    4.141340830000   10.025050540000
  110	   2     10.385420220000    3.808779420000    9.124814270000
  111	   2     10.109136800000    5.070544260000    9.936995450000
  112	   1      0.464537150000    9.846664900000    3.606099250000
  113	   2     -0.073138640000   10.203700770000    2.884592590000
  114	   2      0.602764590000    8.938861400000    3.276839900000
  115	   1     10.613019340000    9.858941810000    4.548018810000
  116	   2     11.561834070000    9.765806630000    4.441760030000
  117	   2     10.375524610000    9.262612020000    5.283495750000
  118	   1      0.064526280000    3.814663870000    1.338913590000
  119	   2     -0.284198320000    4.070997310000    0.431468340000
  120	   2      0.970436920000    3.584821040000    1.073430680000
  121	   1      4.548526820000    0.393785630000   10.565657980000
  122	   2      4.775718470000   -0.551344440000   10.715785550000
  123	   2      4.713153850000    0.918297080000   11.365297660000
  124	   1      7.231576980000    9.026651900000    2.762484950000
  125	   2      6.527877120000    9.673359370000    2.565895610000
  126	   2      7.969726260000    9.531116530000    3.137369960000
  127	   1      9.110896910000   11.142249460000    9.608958500000
  128	   2      8.167956050000   11.228558270000    9.417608020000
  129	   2      9.417978450000   11.929400560000   10.077121580000
  130	   1      6.979106530000    6.629637900000    0.332191520000
  131	   2      6.818342490000    7.033082600000    1.185558030000
  132	   2      6.096915210000    6.442097500000   -0.036060250000
  133	   1      0.331446440000   10.395210000000    6.450670170000
  134	   2      0.024038400000    9.535614540000    6.791777800000
  135	   2      0.584365100000   10.226349550000    5.529954740000
  136	   1      8.261832080000    6.815590770000    7.122248960000
  137	   2      9.197999480000    6.967094210000    6.912006860000
  138	   2      8.203410920000    5.884291800000    7.371385590000
  139	   1      5.461267540000    7.033347190000    3.822516860000
  140	   2      6.030080120000    7.786260530000    4.060482550000
  141	   2      5.790204100000    6.254080840000    4.289954960000
  142	   1      0.055589540000   11.733128730000    0.937781390000
  143	   2     -0.480160050000   12.497578130000    0.697270350000
  144	   2      0.950402270000   12.056085580000    1.119723100000
  145	   1      1.632739230000    3.425305860000    9.683254980000
  146	   2      1.040161300000    4.125148010000    9.976048730000
  147	   2      1.813802510000    3.478445840000    8.727508030000
  148	   1     11.886113860000    3.192848900000    6.636146780000
  149	   2     12.073548430000    2.296353910000    6.975508120000
  150	   2     12.450957620000    3.251598150000    5.852805760000
  151	   1     11.799540470000    7.171250770000    0.100067410000
  152	   2     11.256498820000    6.685783600000    2.578161940000
  153	   2     10.845592720000    7.196175020000   -0.127164460000
  154	   1      9.987743550000    1.098005660000   10.545390490000
  155	   2      9.760356100000    1.699431440000   11.270310350000
  156	   2     10.855117910000    1.308538820000   10.182163250000
  157	   1      2.579892350000   10.705202010000    7.872198900000
  158	   2      2.156227790000   10.830564090000    8.734016910000
  159	   2      1.791005550000   10.671546340000    7.276080780000
  160	   1     10.722823610000    5.434491180000    7.524529480000
  161	   2     10.997625330000    4.561391120000    7.168763640000
  162	   2     11.618403110000    5.798194670000    7.850132210000
  163	   1     10.200737370000    0.328971480000    3.705611030000
  164	   2      9.793958850000   -0.442513330000    3.291932040000
  165	   2     10.411085310000    0.897346960000    2.949427380000
  166	   1      4.663104270000    5.477354530000   11.917811580000
  167	   2      4.570942770000    5.014747810000   11.060279910000
  168	   2      3.979015720000    6.171740860000   11.964961270000
  169	   1      5.895827870000   10.724146550000   11.198130580000
  170	   2      6.548938380000   11.167385380000   11.753025800000
  171	   2      5.359400930000   10.186767100000   11.811605710000
  172	   1     10.902479270000    9.035012900000    7.908606300000
  173	   2     10.303344830000    8.421590680000    8.352374300000
  174	   2     10.680701100000    9.901170160000    8.270404750000
  175	   1      3.813266840000    5.967848880000    1.832794680000
  176	   2      4.414380400000    5.519477040000    1.176890110000
  177	   2      4.411681590000    6.566295390000    2.328093960000
  178	   1      3.508952900000    7.757526200000    5.988275120000
  179	   2      3.163770610000    8.272151040000    5.253819490000
  180	   2      4.414491520000    8.094188740000    5.909533560000
  181	   1      8.543671860000    5.050848280000    1.968195250000
  182	   2      9.124020510000    5.530748510000    2.575960570000
  183	   2      7.640260530000    5.363369760000    2.046375890000
  184	   1      0.145306770000    0.788982050000    7.873839350000
  185	   2     -0.371334760000    0.015454090000    7.616765070000
  186	   2      0.610458830000    0.485148610000    8.671838580000
  187	   1      2.660914670000    2.503727880000    1.760165110000
  188	   2      2.618215370000    2.352922960000    0.791559140000
  189	   2      3.320512900000    3.206342910000    1.836287250000
  190	   1      4.636666570000    3.896083070000    9.543181770000
  191	   2      3.703790660000    3.596076640000    9.610493120000
  192	   2      4.732283600000    4.262644120000    8.649930650000
