192 
Lattice=" 12.38379974 0.00000000 0.00000000 -0.00000053 12.38379974 0.00000000 -0.00000053 -0.00000053 12.38379974 " Properties="species:S:1:pos:R:3:forces:R:3" 
O 3.46223185 5.73474632 2.21688737 -10.74346338 -13.66547233 -0.87724546  
H 3.88831475 6.40473759 2.19276218 8.85025622 13.34922646 -0.61982133  
H 2.65467038 5.80999532 1.61576323 2.05268763 0.29301696 0.87467950  
O 10.48210090 11.28470397 7.72302385 -1.24653835 -0.36631041 2.16972431  
H 10.04420676 12.20092139 7.76800391 0.63752595 -1.86645224 0.48859369  
H 10.20433578 10.66546080 8.51758343 0.91741640 2.31482717 -2.70181955  
O 4.29290248 9.26187117 7.14066433 -8.26214176 3.09183040 3.75975196  
H 5.04474687 8.97225248 6.84787058 6.94635327 -2.58432007 -1.50806083  
H 4.12505805 9.08210967 8.11112241 0.77390762 -0.55186189 -1.77198986  
O 11.36333970 0.84011115 3.74964386 1.90285908 1.80264257 5.26022288  
H 11.30380726 0.81598067 2.86516649 -0.48793497 0.49389479 -4.59149401  
H 10.85289537 0.17057710 4.12723297 -1.31963486 -2.08472359 0.66793698  
O 7.02821417 8.50943410 9.86656197 -0.14469920 -0.49349216 1.02757280  
H 7.33984663 7.55977268 10.03833289 -0.55550772 1.43429584 0.31499579  
H 6.42876223 8.79762401 10.60555794 0.58962113 -0.89046608 -1.44187031  
O 1.46694801 3.40664178 7.98962333 -0.90230859 -1.42112664 -0.00989104  
H 1.09659276 2.80557585 7.29010397 0.65999741 1.00697311 1.05494992  
H 1.76110704 2.75045675 8.71221480 0.02082800 1.08072782 -1.29884491  
O 4.94354702 1.32234505 11.15103380 7.45640900 -7.87071680 4.40438444  
H 4.35259896 1.84152081 10.88618061 -7.95988270 6.26382785 -3.83615490  
H 4.51218293 0.47762900 11.55786524 0.82061945 1.97438721 -0.79670304  
O 3.23483911 7.78832432 9.33283383 -1.12933198 1.43515973 -1.37886282  
H 2.65196629 7.54754869 8.57288245 0.60903811 -0.29815454 0.91456761  
H 3.51432405 6.99847442 9.75210094 0.60948034 -1.57095519 0.27628216  
O 5.09122450 8.87244966 12.15117873 0.84069464 2.98344806 -1.74896305  
H 4.47655872 8.31898322 12.53488512 -2.21200356 -1.54091440 0.98719618  
H 5.89053609 8.42074400 -0.10834215 1.36876867 -0.88180146 0.65522544  
O 9.15762326 8.07127537 4.55256973 -4.16934949 -2.12899801 -1.14290227  
H 9.39003789 7.48849251 5.37231285 -0.61053450 0.84960094 -1.36205294  
H 8.10540730 7.72408220 4.16795315 5.00078815 1.42408855 2.27300558  
O 7.25179154 10.87914255 5.27973859 -1.98929448 -1.65497375 6.86803743  
H 7.06784955 9.95287077 5.68521534 0.88398175 2.18235872 -1.45100288  
H 7.37551318 10.81119620 4.41648123 1.47297039 -1.19318279 -5.58371926  
O 1.79922897 8.85350512 5.78554734 -2.27921737 -2.03659252 -2.29475713  
H 1.66616736 9.46719193 6.44791845 -0.62310720 2.36622355 2.22622691  
H 2.69531119 8.83249678 5.60885507 2.62911385 0.18974289 -0.32860156  
O 0.22621902 10.11516942 2.83665443 4.15236991 0.83489423 -8.24131581  
H 1.08831114 10.63535061 2.85385798 -1.01591542 -0.62566802 0.36297826  
H 12.36623635 10.15099472 3.64816884 -2.86915218 0.15179647 8.62158218  
O 1.46485247 5.82761692 12.10815662 2.63512510 1.42445365 -3.76498672  
H 0.99409114 5.20419326 0.17244880 -2.13878878 -2.59314924 1.70418983  
H 1.58987059 5.42851147 11.17294174 -0.87410871 1.05200344 2.16669041  
O 2.55578304 1.54595946 9.42702738 0.81246391 0.69965412 -0.52923617  
H 1.75691596 1.14308098 9.72177908 -1.00659773 -0.89109343 0.63176668  
H 2.74620746 1.08517312 8.59558415 0.52379571 -0.19743255 0.45919722  
O 8.04846783 2.98909980 5.00929729 -0.14289377 0.42473311 -0.06488285  
H 7.75514491 2.45535050 5.76702613 -0.65130707 0.09414408 -0.02711435  
H 8.94304190 3.24595183 5.25099369 0.58909148 -0.27930115 0.50086352  
O 1.77787667 2.12793797 2.17552159 4.50392218 3.41203577 4.67910182  
H 2.34105880 2.66093584 1.56356519 0.29711428 -0.62434133 0.27676450  
H 1.26082291 1.71015257 1.63806276 -5.31262200 -4.00583752 -4.77843388  
O 8.86350657 2.02906650 0.31538803 2.25872567 -0.72861505 -3.24574187  
H 8.04942035 1.97168782 0.71385476 -3.08316064 0.66982417 2.36274742  
H 8.74285416 1.28984299 -0.31231404 0.50947980 0.38590480 0.64618029  
O 1.22143096 1.07020269 6.18327693 -10.60493226 -0.81075155 -0.53257861  
H 2.03767622 1.04760683 5.94588803 8.29114382 -0.06628256 -2.80332162  
H 0.59560482 0.77403279 5.35839549 2.51500309 1.33561684 2.73226143  
O 6.87544071 3.47735573 2.01682134 2.41510539 -0.60912039 3.65655810  
H 7.96242362 3.34527310 3.24017321 -4.28006639 -0.10721095 -3.70862297  
H 6.10675790 3.01308740 2.41548229 1.05781928 0.35472656 -0.31035444  
O 12.41555566 5.02035180 9.78088818 -2.52448018 0.79585972 2.73588154  
H 0.30613219 4.53408557 9.03390163 0.75533396 -1.46463487 -1.94377050  
H 11.53775651 4.65803475 10.11024807 2.12246741 -0.23815011 -0.69129803  
O 8.25971537 6.16644909 10.70641911 -0.13811665 -0.84491125 1.41919831  
H 8.27897742 5.65828022 11.59586017 0.28426132 1.85216204 -1.74402138  
H 9.10994439 6.64381985 10.58814801 -0.55873702 -0.96324377 -0.02743883  
O 10.12882219 6.63027291 6.57402138 -1.33731892 -1.34565444 0.79135000  
H 10.80886782 6.05786193 6.12014608 -1.47256930 0.22162870 0.68405266  
H 9.41252792 6.04902467 7.03948565 1.69401340 1.13812002 -1.37069700  
O 7.10012936 11.91357816 7.75958999 -6.26382785 2.94977173 14.91888581  
H 7.79774367 11.76535563 8.36359286 0.79190536 -0.17105045 1.01160110  
H 7.34905432 11.77138825 7.02503911 5.29632119 -2.86820601 -15.66059807  
O 4.67618024 9.95678668 4.20574699 2.19425265 0.43762206 1.08655394  
H 4.47010276 9.16079832 4.76775964 0.06597814 1.29161496 -0.92367447  
H 5.52704427 10.36007263 4.61918785 -2.40762862 -0.81645941 -0.62530292  
O 1.19470751 4.49848253 3.17499446 6.08323346 14.73232647 9.40438069  
H 0.89691833 3.89240529 2.78099027 -6.01751603 -14.14225796 -9.04946541  
H 2.12651449 4.68866882 3.01028805 -0.43973602 -0.46706120 0.34529883  
O 4.53476292 7.37821198 4.75552507 -4.54468448 -1.20582748 1.42972441  
H 4.65765903 7.12357191 5.66484201 0.19148199 -0.12103886 0.46758005  
H 5.31965972 7.69286075 4.48193516 4.43530454 0.86932646 -1.62282980  
O 3.43022721 3.18088420 0.56093313 -3.40364883 3.39443399 0.20513764  
H 3.77132425 3.91257223 1.07453666 0.12277641 0.65451581 0.09051728  
H 4.13983797 2.65032055 12.88414208 3.95324300 -3.41099704 -0.65745716  
O 9.83158335 3.67382335 2.83505631 -1.90944625 -4.28816537 -2.75498999  
H 9.37929559 3.73771092 3.61865663 -1.21739231 0.07740465 2.65109166  
H 10.41431329 4.32208660 2.89957360 4.27056359 4.59340691 0.24859856  
O 3.65898522 11.96887718 7.71815542 11.43740451 8.66081724 9.71548434  
H 3.21866216 11.44483299 7.34228085 -11.48903229 -11.05610970 -9.87227030  
H 4.13637715 11.17103670 8.13652292 0.23500976 2.79201390 -0.14581300  
O 0.28941284 0.26741441 10.23058297 -3.22271505 2.91034127 -9.13071231  
H 0.42876636 12.22404643 10.94708891 1.95870347 -4.78330869 8.03434189  
H -0.15233795 11.96152162 9.63155437 0.96539321 1.69627597 1.43567909  
O 0.94538037 7.80716302 1.79414887 -8.48423378 4.36141614 -6.92095076  
H 1.59971328 7.63179370 2.25133151 10.17365518 -4.55527228 7.10118519  
H 0.99513891 8.75820030 2.07478212 -1.81147174 0.04020693 -0.46641226  
O 6.06955674 3.55096428 9.78168194 3.54786723 0.36223676 1.78835751  
H 6.37261653 2.73214193 10.35515128 -0.96531608 2.48759511 -1.54373233  
H 6.84951103 4.28071553 9.81851268 -2.53487773 -2.54898281 0.19254899  
O 11.01143686 10.01414949 0.67928891 -2.42489102 -0.89888902 3.41517252  
H 11.07017553 10.47834374 1.65556794 0.11098996 -2.26023234 -3.55625417  
H 10.43987255 9.13370445 0.83813732 2.06581569 2.80602642 0.10157869  
O 8.41714559 10.83866050 10.15221182 1.23177507 -0.36507525 -0.47208206  
H 8.02730074 9.93471999 9.96038509 0.67733179 0.71316271 0.15056800  
H 9.39538258 10.83950718 9.94144054 -1.96703385 -0.45902136 0.79008501  
O 10.49014439 7.42837798 1.96297227 0.62133828 0.38182189 0.05079063  
H 10.19740356 7.43239973 2.88478838 0.23153414 0.56020770 0.34117735  
H 11.45494027 7.59231708 1.91287506 -0.61607266 -0.36908515 0.37571757  
O 7.23030695 9.51931588 2.34163561 0.86381915 3.45269008 -0.67336715  
H 6.30022509 9.48364934 2.56859442 -0.41827964 0.65795595 0.09820591  
H 7.40752840 10.48644015 1.94714458 -0.58068397 -3.15818033 0.67045152  
O 7.82557839 4.93990099 7.61533629 3.48334793 -2.53755168 -0.58109021  
H 8.19695496 4.03501855 7.34397421 -1.15223538 2.35342973 0.77510062  
H 6.86506884 4.95190802 7.57189084 -0.38350596 0.11973531 -0.11987004  
O 1.87436684 6.48469626 6.80172633 3.59465619 -2.42057156 -1.55864988  
H 1.82190421 7.38736675 6.38970895 0.37803928 -0.73824640 0.02799213  
H 2.80792010 5.87159155 6.34864480 -4.51958021 2.47422537 1.90912743  
O 6.12448534 7.17336748 1.56893105 2.10757557 -4.51130640 -4.68364239  
H 6.44484922 7.94363783 1.90137075 1.52340004 3.23135397 1.40390538  
H 6.95301809 6.94439250 0.83805794 -3.51098730 0.23499947 3.39180118  
O 7.94961753 0.66095292 3.28905860 -2.85094362 -1.28230756 1.63712000  
H 7.40213079 12.18462273 3.24290377 1.71603234 2.38567139 -0.06534925  
H 7.46303909 1.18667989 4.00945400 1.45201589 -1.15386032 -1.66244538  
O 11.23924764 9.73336806 10.23915564 3.70448863 -0.55638189 -12.08208327  
H 11.14092652 8.80857797 9.99319407 0.13887153 -0.28479817 -0.43258063  
H 10.96486926 9.76490702 11.00725636 -3.89158791 0.90550190 12.25326742  
O 10.50220963 6.83485282 9.33928980 1.36481431 -1.08883194 4.81290725  
H 10.61513605 6.93666652 8.45572261 0.11983919 0.69743269 -4.43791679  
H 11.26618276 6.18751034 9.55228362 -1.07561646 1.52545178 -0.42008404  
O 6.71568212 8.42862874 6.95804528 0.13151611 0.70749599 -2.76282672  
H 6.57560891 7.65613585 7.44943923 -0.11150624 -1.62271153 1.20714389  
H 7.09706013 9.07925212 7.50283321 0.56932483 0.78314303 1.52067467  
O 4.04806277 5.31368002 10.69070255 6.27385516 -2.56157608 -6.02831467  
H 4.53181540 4.34845550 10.49416614 -1.76693507 3.64997607 0.97747226  
H 3.45579705 5.29992141 11.32481560 -4.10233622 -0.88077816 4.97837326  
O 9.78750289 1.72513357 8.21896873 -3.14747939 -3.62025925 5.24351070  
H 10.06246337 2.08759350 7.48843959 2.09190212 3.19584701 -6.89133164  
H 10.53634156 1.84633632 8.76460335 0.94771429 0.21512946 1.55952920  
O 10.86448435 2.52342914 10.65821107 -5.71299440 4.02009686 -0.65588878  
H 11.39498450 1.87589616 10.94042128 3.05418429 -4.20848170 1.40248099  
H 9.89863011 2.37503198 10.98619510 2.84248982 0.42836248 -0.71916367  
O 10.68239447 2.75897650 5.86582352 0.20484042 -0.34059988 -1.61087416  
H 10.72012480 2.12543497 5.10023110 0.25092130 0.58753854 0.74469988  
H 11.36455681 3.43094689 5.65949733 -0.71520931 -0.42782460 0.72348312  
O 6.93365021 5.77051870 4.19305732 -0.45446382 0.51456545 1.15168002  
H 7.12579445 4.97854151 4.70018371 0.11350244 0.03551775 -0.10498437  
H 7.53050918 5.78951617 3.46406280 0.22310400 -0.48941079 -1.07390411  
O 8.45254755 11.61348177 0.56547876 0.47372551 -2.26179557 -0.91969440  
H 9.02860986 10.79706717 0.48848084 -0.32964081 1.52459303 0.53910407  
H 8.10948196 11.54357746 12.03560643 -0.19452977 0.28824242 0.31190635  
O 11.34873441 1.39978484 1.24789511 1.59708790 5.42143114 -2.80947684  
H 11.08123533 2.06462192 0.42870815 0.54747044 -3.03242246 3.61536386  
H 10.99058727 0.57714712 1.11916217 -1.83344440 -2.64944615 -1.40265583  
O 5.54493046 5.64293408 7.50055775 0.99102712 1.72553514 -1.42482903  
H 5.24107161 5.13798789 6.77299201 -0.57305293 -0.77422644 -2.00610950  
H 4.95852274 5.32585110 8.11435039 -2.22388206 -0.78724651 3.11750545  
O 0.93341568 11.01492943 7.20384809 0.86977897 -1.23397594 -0.28712965  
H 1.18256289 11.82314178 6.76732981 0.06028675 0.71108011 -0.24870963  
H 0.30730273 11.30084387 7.83647944 -1.04632644 0.00049160 0.63092850  
O 6.25656797 2.35051520 7.28200756 4.80674688 14.00820057 -3.78349353  
H 6.09067091 1.62899795 7.61216122 -2.75641438 -12.25373022 5.55934519  
H 6.73420332 2.90223006 8.03714344 -2.12531619 -2.06505979 -2.15063129  
O 2.40399914 11.60882501 3.43409549 -0.57716156 0.06548603 -0.26338704  
H 2.08061366 0.08802228 3.11122331 1.34710968 -0.28658920 0.32563451  
H 3.36789013 11.47832991 3.53043750 -0.87199526 0.43427653 -0.21002222  
O 10.47723246 10.77547674 4.78283061 6.18273521 7.23956204 0.22077509  
H 10.72525782 10.54560216 5.63748355 0.91342604 -0.05346046 2.63395781  
H 9.91868592 10.18216325 4.59911616 -7.13959750 -7.27864283 -2.74467986  
O 4.22225732 11.67671844 0.24057666 -7.86176935 3.37339207 1.57576830  
H 4.82263003 11.11499684 0.00976808 6.00846574 -5.51820752 -2.01067064  
H 3.34323577 11.14378408 0.01979811 1.63490370 1.71257163 0.59773554  
O 3.68525887 2.40688845 4.40016140 -0.24331031 0.32234658 1.65815677  
H 4.20539244 2.00620076 3.75163886 1.22374808 -1.28945009 -1.87329138  
H 2.80241137 2.33820125 4.07323043 -0.86972241 0.21692204 -0.41718846  
O 8.73422858 5.81994385 0.96372166 1.95454343 -5.16637757 -0.15626248  
H 9.38146522 4.79533507 1.00686018 -3.25987266 4.78477936 0.19876695  
H 9.27859317 6.50369373 1.37339478 0.80050313 -0.24685072 -0.30284835  
O 11.98623419 5.08876383 5.59970030 -0.57022986 -1.98486189 -1.56019769  
H 0.13054167 5.81020699 5.84037009 2.09264774 1.57303778 1.20674280  
H 12.55811600 4.64333421 4.94571136 -0.04952924 0.55015982 -0.12361048  
O 2.28535761 8.84027569 11.86531720 -2.66316556 -3.00367751 3.95981989  
H 2.52951468 8.24130001 11.17040169 -0.09599270 -0.24130228 -0.84157395  
H 1.59146870 8.07736091 12.70131135 2.37595261 2.55159505 -2.78090158  
O 5.14286691 1.12767663 2.33546540 1.72447070 -0.61937910 2.80590815  
H 5.70669993 0.59593820 2.99969392 -1.54377347 1.38185559 -2.16625846  
H 4.66730064 0.50763546 1.80617706 -0.47700778 -0.96968181 -0.81984298  
O 1.52779810 11.12409868 -0.04295173 -0.24486223 1.57906445 1.81136375  
H 1.35218535 10.19735064 12.08063941 0.38983911 -0.05621617 0.39358418  
H 1.43570010 11.28211100 0.93950122 -0.12514492 -0.78622836 -2.16666470  
O 3.66353086 4.66441663 5.30436650 2.43816820 1.41016859 -2.67799569  
H 3.85136231 5.51175105 4.78637081 -0.40626589 -1.61536845 0.79687273  
H 4.14725174 3.96904602 4.66193479 -2.01227501 1.32272018 2.38281232  
192 
Lattice=" 13.36870436 0.00000000 0.00000000 -0.00000053 13.36870436 0.00000000 -0.00000053 -0.00000053 13.36870436 " Properties="species:S:1:pos:R:3:forces:R:3" 
O 6.34187134 3.56568070 13.21567160 1.64625770 -1.17716995 -5.65077367  
H 6.00245707 3.77569526 13.99737217 -2.05669341 1.18967581 5.22119352  
H 7.25523120 3.36657248 13.37384267 0.38507433 0.02660270 0.07427818  
O 0.67900844 6.71541753 9.57207485 3.06957492 4.88260989 1.60015780  
H 0.44074588 5.95620699 9.20784218 -1.86441078 -5.11245122 -2.29374411  
H 0.00426517 7.09621345 10.11014224 -0.93179916 0.18353110 0.53437838  
O 1.70826340 6.24296811 13.22540846 -1.58682405 -0.65982257 0.98020791  
H 2.03778734 6.58296447 14.05992092 0.13452996 0.16143297 0.31288697  
H 2.30006874 6.58132402 12.59198334 1.01710841 0.30707473 -1.19801133  
O 8.73115935 5.91344947 2.52015354 -0.21471706 -1.81395028 -0.51700800  
H 8.34665919 5.07853484 2.13901365 0.55822280 1.44210171 0.75838844  
H 8.17795749 6.59645849 2.16096921 -0.26915146 0.61009227 -0.29386080  
O 10.29821182 10.50607262 10.28863371 -0.54854516 4.16434612 2.01498495  
H 9.57546158 10.32959202 9.63266564 0.35975358 0.34292776 0.77656615  
H 9.96578269 11.40662640 10.92507514 0.85960768 -4.11830792 -2.62584341  
O 1.81100316 12.25368035 3.72154455 -1.41884864 3.44116124 -4.18156223  
H 2.66667741 12.14234147 3.34598749 1.91666077 0.22584686 -0.95140640  
H 1.86600584 11.66941580 4.46642497 0.28782487 2.34492452 -2.57515151  
O 8.99728257 3.58605931 7.51130005 0.99904897 -2.07684573 -1.07905146  
H 9.07110279 3.35037437 8.42190819 0.23571784 -0.08445770 0.24659927  
H 8.60352181 4.41648123 7.47261719 -0.92796307 2.11393134 0.12364185  
O 12.55229505 11.60162820 8.92372693 1.43741716 0.33763334 1.98429625  
H 13.49211377 11.08097074 8.93753846 -1.54576865 0.11472166 -0.01291723  
H 11.83039150 11.23824221 9.67748695 1.12116615 0.58939487 -1.77303373  
O 4.59997872 9.61514987 1.24806974 1.87290571 1.20336437 -2.02304279  
H 3.87396876 10.23899689 1.20065546 -0.44155070 0.18862446 -0.13513623  
H 5.22762522 9.93022198 0.49868549 -1.58764680 -0.91844998 2.02039456  
O 3.60794079 7.28497096 5.13089692 -0.31706450 -0.05938017 -0.01060735  
H 3.79264480 7.04821707 6.03971115 -0.22768417 -0.10012396 0.57481157  
H 4.36909341 7.80181834 4.88367062 0.51405842 0.26656338 -0.32539437  
O 3.11871646 7.55612136 1.99705657 -0.56463514 -2.18566516 -1.51506452  
H 3.75190345 8.18737685 1.72858910 1.33501521 1.20594061 -0.88682025  
H 2.81516454 7.87383935 2.79894526 -0.98994726 0.49512841 2.49311785  
O 13.00574700 8.08709777 5.65013089 0.82910410 0.97724600 1.73217373  
H 13.60789775 7.36852804 5.84291015 -0.20373844 -0.40249820 -0.21518808  
H 12.66961364 7.96443449 4.79149853 -0.56918085 -0.55632533 -1.50698611  
O 6.95709276 2.89023891 9.39093749 -2.01068607 -1.30517497 0.10618662  
H 6.51147263 3.62680067 9.00670192 -0.97779108 0.62318947 -0.61387179  
H 7.79107604 3.24380337 9.51227783 2.25750696 0.69323150 0.78781216  
O 4.47620946 6.45770823 12.75597536 2.35096662 -2.19484400 0.44413055  
H 4.22898316 6.20449693 13.68711557 0.57282153 0.23337608 -1.56881603  
H 5.25548111 5.80454480 12.49249803 -2.57275010 2.01890332 1.05601436  
O 6.39410113 4.30143810 2.55622226 5.83147090 1.06488982 -1.70456521  
H 5.53238896 4.32072661 2.63248198 -7.02600610 0.14685738 0.60384962  
H 6.69324500 3.64608388 3.13974067 0.76925907 -1.18132486 1.26654155  
O 0.69628608 1.56870350 2.84501013 0.90948197 -0.59331324 0.71839233  
H 1.09440197 0.67157880 2.80813707 -0.51901346 1.09315654 -0.25649494  
H 0.12745921 1.67512633 2.09213384 -0.36319681 -0.33923000 -0.52240732  
O 7.15034827 9.86174645 11.94591089 0.33953802 2.83143922 -0.68335332  
H 7.28899270 9.26541666 12.63717508 0.47134981 -1.53432209 1.80618555  
H 7.77112606 10.64080114 12.14689239 -1.17244940 -1.11870303 -0.15901768  
O 10.17708315 3.68478790 0.76928607 0.20147741 2.10873771 0.54549069  
H 10.52628719 3.27267528 -0.00295545 0.68941084 -0.15663786 -0.67049780  
H 10.62450248 4.59375030 0.80092029 -0.72247525 -2.14753054 0.03127543  
O 7.23247658 8.77767402 1.41314128 0.83286819 -0.28859878 -0.64665337  
H 7.46938921 9.06385306 2.28986620 0.38998514 0.30182814 0.24692786  
H 6.33266365 8.52652652 1.49240144 -1.07255685 -0.31393136 0.25808954  
O 8.70660553 5.99526026 9.37495634 0.46065555 -1.59587948 1.46044397  
H 9.62150000 5.70569450 9.49523832 -0.47401398 -0.07492456 0.20403618  
H 8.82519414 6.55169010 8.64485055 -0.06028675 1.47186482 -1.70477090  
O 1.22043610 1.08601980 11.54923965 2.69972667 1.14253717 -0.02874032  
H 0.85235631 0.77761003 10.72732161 -0.50516086 0.02152426 -1.06785173  
H 2.11902663 1.46361949 11.23818929 -2.43878526 -1.06657646 1.13752352  
O 9.94996029 12.55414717 7.95967190 -4.53395783 -0.13812385 -3.51165579  
H 10.80384064 12.24240888 7.96988502 2.87083882 -0.91333863 -0.08607287  
H 9.60255546 12.21346289 7.01609602 1.46896976 1.13707615 3.31978454  
O 8.63717748 12.13720845 12.29485034 0.78801785 0.41809349 1.76339723  
H 8.29776321 12.78470968 11.69063580 -0.54886912 0.61443743 -0.66119554  
H 8.77344061 12.62854949 13.16550560 0.08604459 -0.77045206 -1.52691731  
O 9.73590811 11.52436832 4.91524662 0.00198798 -1.78090131 1.95228085  
H 10.25661849 11.52897217 4.12822782 0.59520557 0.06506540 -0.90811414  
H 9.23382478 12.29320989 4.90429795 -1.40696500 2.01517007 -0.50291423  
O 12.60256689 7.69270199 0.58693690 -4.66100125 2.69670305 3.09632984  
H 13.23604492 7.16722903 0.26736837 3.91851252 -3.10786381 -1.97989452  
H 12.08698953 7.09901808 1.28000029 1.07728254 1.22928624 -1.54860201  
O 11.47880617 5.95398444 2.10181779 7.45404359 -0.92371560 0.89740806  
H 10.61100846 5.92281590 2.19348715 -6.63123870 0.03623766 1.24060425  
H 11.92664884 5.53651654 2.92888472 -1.30620341 0.92371046 -1.43228009  
O 3.59757950 7.05784810 8.17891001 1.92919748 3.24398837 -2.37470820  
H 2.86121883 7.05578431 8.74057870 -2.10785325 0.20022066 1.27233168  
H 3.62665779 8.82768127 7.64311809 0.54787668 -3.11678040 1.26220152  
O 8.82858087 8.40846709 5.81713922 0.11681608 -1.74143999 1.03629399  
H 8.75941741 9.32060984 5.66097902 0.33491517 2.03660280 0.01626841  
H 9.21117599 8.29003723 6.72674192 -0.51541391 0.21005873 -1.26569308  
O 3.21875741 9.71331225 11.57294679 -3.40431731 0.09373682 1.16022123  
H 3.51666301 8.83731230 11.54680544 1.05916139 -1.73356213 0.00952543  
H 3.81431990 10.29546009 11.21368839 2.48987826 1.64971841 -1.47585003  
O 3.56938494 4.19261281 4.65107607 -1.35880307 -2.37025504 0.05643780  
H 2.78867922 4.06604950 5.23415527 0.35981118 -0.21947309 -0.24235386  
H 3.90797368 5.00624394 4.89570940 1.21780369 2.64104378 0.76911509  
O 3.22303846 3.36593218 2.18716878 -1.40056295 3.30881621 2.01995233  
H 2.94829494 4.20938244 2.86551046 1.10786326 -3.97231546 -2.66072816  
H 2.44359218 2.78026001 2.17490245 0.46671256 0.37870417 0.22224988  
O 9.67764570 0.65442287 1.01298805 1.04115338 -1.34417862 -0.27956803  
H 9.39882223 1.48272279 0.67666419 -0.48789949 1.24333990 -0.13135362  
H 10.62307370 0.61220511 0.73046563 -0.66675941 -0.13179791 0.43716491  
O 5.02342103 4.68717654 7.64380602 1.66383891 -2.49734474 -1.65476292  
H 4.68616052 5.33437085 8.18764144 -1.34037339 2.55416615 1.67850449  
H 5.71474343 5.13235216 7.13558423 -0.20676617 -0.08260908 -0.14949071  
O 4.47623592 1.80944738 11.06509543 0.47095128 -0.44036748 0.71493163  
H 4.43909826 2.68507691 11.42504176 0.90395924 0.50136437 0.99314057  
H 3.72175093 1.88080693 10.52104834 -1.08905306 -0.48583284 -1.52442334  
O 2.35385960 11.25602256 13.67568535 0.09985193 -1.71376977 -0.62545719  
H 2.74079397 12.11318380 13.60186513 0.43156505 1.06074519 -0.24702093  
H 2.57662204 10.69874604 12.86747300 -0.32071342 0.88841434 1.15990756  
O 4.46326579 12.23748753 9.19620028 0.78559587 1.22758417 0.13423017  
H 4.42638214 12.75692788 8.33321809 -0.03899389 -0.56006886 1.58923574  
H 5.02121965 12.76539471 9.82809078 -0.82863616 -0.75932432 -1.13049412  
O 13.12719317 3.50891057 9.70876132 -1.96373255 0.84572372 -2.64009247  
H 12.96801667 3.14561983 10.54729553 0.18097234 -0.85384327 2.36102478  
H 13.27869661 2.46090156 8.98823364 -0.23419986 -1.29303421 0.74789833  
O 7.62867155 13.24392966 3.37022380 -0.41086251 -0.70236407 1.79672388  
H 7.96300571 13.25255525 2.49653107 0.46049872 -0.22817576 -1.24690345  
H 7.01524933 12.48329034 3.46835443 0.40772937 1.00984247 -0.58707060  
O 1.80484354 10.35229373 5.98229542 -0.12075501 2.72325742 0.87239636  
H 1.27667177 9.77676059 5.53138352 -3.00435628 -2.95919226 -2.00054049  
H 2.16194290 9.79835102 6.65329212 1.43281488 -1.15511502 1.88249079  
O 1.37923689 10.24280696 9.02882153 -1.42827945 1.13271555 -1.56513935  
H 1.25526655 9.69659025 9.76284323 -0.11951420 -1.57768634 1.81879425  
H 2.29994703 10.32324190 8.88832498 1.40124172 0.48802805 0.09851342  
O 4.98433071 0.64796162 3.34546360 -0.64943531 -8.91124283 -8.15220133  
H 3.59775942 0.61565535 1.66517780 -0.61498765 -0.54448282 -0.11579072  
H -24.91207544 -2.14063823 -35.09402702 0.00987458 -4.97030513 6.47131599  
O 7.46986547 0.05094019 9.61885412 -0.32665215 -0.68358472 1.11008469  
H 8.03481506 -0.18004990 8.90081356 0.67818540 -0.17793226 -0.66880087  
H 6.86337547 0.71369072 9.31838730 -0.02957439 0.85599271 -0.10132209  
O 12.58647990 0.25538092 0.39747453 -2.66958818 2.09400014 1.07626438  
H 12.67204785 -0.56104955 0.83553377 0.35566296 -1.72887758 0.43038851  
H 13.24625804 0.34029799 -0.23052229 2.04993655 0.21840505 -1.85457374  
O 12.03999860 4.12735997 7.13780677 2.97117875 0.41459833 0.25672891  
H 12.23283077 3.99517680 9.51852212 2.36907748 -1.24693945 -0.98091754  
H 11.12706208 4.06333482 7.23676291 -2.06278179 -0.33920326 -0.18508148  
O 7.78599594 9.57366238 9.52169718 1.78930882 1.32668483 0.24787351  
H 7.17950594 8.97256999 9.17963703 -1.42991468 -1.35518809 -1.11751518  
H 7.56723408 9.61255691 10.47411032 -0.00883329 -0.06877551 0.02720691  
O 13.46163317 1.02350281 8.87821769 -1.22643232 1.37911993 1.93723989  
H 12.94864878 -0.79342714 9.05676208 -1.49415115 -0.46158938 -0.12581906  
H 14.02875238 0.88623424 8.15864253 0.95256340 -0.12082392 -1.54173202  
O 11.72820739 11.18569491 3.37014443 -0.39784553 -1.28546488 -1.56860520  
H 12.09656764 11.75540709 3.99171068 1.03466391 1.45797057 1.65825448  
H 12.31823997 11.23400879 2.58423160 -0.22206116 -0.02395190 0.14380445  
O 4.79755232 12.58452194 3.22158851 -0.63146329 -4.26610529 -4.00404289  
H 4.44315705 12.41640234 2.21320959 1.21472865 0.98165288 3.09546080  
H 5.44682101 14.30948089 4.25090697 0.61260681 -8.97598324 -3.04260404  
O 5.32341688 9.99986171 8.04931452 -1.13145057 -3.80376412 -0.87745115  
H 5.22584189 10.69805811 8.62945149 -0.46752709 2.70068826 2.15446738  
H 5.79470210 10.32572903 7.32323047 0.84836167 0.56436774 -1.65110680  
O 7.82975889 2.63262486 4.36372755 -1.54397402 1.33864046 -1.00731764  
H 8.17684622 2.42483814 5.19043994 1.11276378 -0.12826161 2.34486281  
H 8.01597635 1.88335227 3.83880493 0.43840933 -1.42756469 -1.06361969  
O 2.87414134 3.06051226 9.26933257 -2.24408066 -1.73874033 -1.61542501  
H 2.86159984 3.12078554 8.29940366 -0.36713934 0.35276223 0.51871007  
H 3.59083249 3.56298189 9.51804586 2.39640832 1.85020800 0.63990165  
O 3.78741124 0.56469029 7.28052587 0.34815739 0.63171526 -2.10166203  
H 3.91868952 1.37654338 7.77123189 -0.02954971 0.13649017 0.37697998  
H 4.06459955 0.82132536 6.35991628 -0.33061628 -0.45147877 1.26352307  
O 4.26515772 10.74134481 5.28591938 1.77927637 -1.97815131 0.40155820  
H 4.27752459 11.47907076 4.74298886 0.62173937 2.52274211 -2.27760786  
H 3.55894427 10.90951733 5.84751399 -1.12174208 0.06257246 1.49056189  
O 6.19444256 9.00865988 4.29220925 -1.92823588 -1.80162955 -2.23807970  
H 6.97524354 8.96378565 4.75958915 2.23329230 0.29702480 1.74640737  
H 5.70251943 9.79628723 4.41601026 -0.27804079 0.98951017 0.59088097  
O 0.56647891 0.09942499 5.85047738 -5.14087221 1.65662954 -0.36772658  
H 1.20440203 -0.41242219 6.16708410 4.21817990 -2.90397522 1.91821372  
H 0.91727577 0.79120459 5.34966407 0.79303150 1.28991289 -1.43594135  
O 12.21420373 8.28755009 10.88369348 0.06884852 0.53196154 0.58617585  
H 11.30872861 8.52911949 10.68699831 -0.21793608 0.19918347 -0.17642560  
H 12.31305404 8.62823438 11.79086197 0.07251955 -0.69052156 -0.24670674  
O -0.12284478 3.73384263 12.75692788 -1.89198331 2.07795645 0.69649681  
H 0.54205209 3.16529993 12.49487932 2.10096269 -2.05306301 -0.65933406  
H 0.34902782 4.53720243 13.01881768 -0.14108114 -0.05007586 -0.12065782  
O 9.53370950 9.26822130 2.99788414 -1.45715810 -1.00169721 -1.01112288  
H 10.16866923 9.91477001 3.19933661 1.25938359 0.95238342 0.47283590  
H 9.41824304 8.72009954 3.76274100 0.30054156 -0.33332006 0.52322493  
O 12.89864153 4.94898167 4.30938105 -0.97416068 2.52820314 -0.10575725  
H 12.68829359 4.32642585 4.98373803 -0.52359002 -0.97954457 1.25661194  
H 13.42940627 4.60058198 3.64202509 1.45437617 -1.46236716 -1.05566983  
O 6.90375169 5.91048607 5.48153503 -1.06655589 0.34515794 1.04454209  
H 6.90295793 6.68456650 4.92707373 0.05348412 0.21292088 -0.06343018  
H 7.47229969 5.30738281 5.05068953 0.89650818 -0.86272386 -0.81763697  
O 13.16296555 11.18199067 1.22086474 -0.93393832 -1.31184955 -0.12195469  
H 12.91245306 10.26624951 0.95899081 0.56269652 0.79197221 0.14733355  
H 14.11955919 11.25247708 1.25375839 0.51700800 -0.36047452 -0.43389550  
O 1.51357382 3.31424215 6.35536535 0.14048310 -0.77859218 0.40662842  
H 1.47218687 2.35911433 6.54676875 -0.28026171 0.99423072 -0.18650896  
H 0.65566114 3.68021581 6.64260274 -0.41137931 -0.15841707 0.09210314  
O 4.98533085 1.78735952 4.45317438 -1.55782713 16.42946118 11.32396737  
H 5.94096668 1.85818460 4.58158452 1.37475420 3.36892349 1.01911387  
H 4.60727607 2.67287937 4.57033950 -0.53635299 1.52108605 0.30395033  
O 10.51549198 7.52717536 7.71730873 0.12119467 -0.85732968 6.24840122  
H 11.16151151 7.35730948 8.54282518 -2.51386666 0.58817103 -2.79880161  
H 11.13986817 7.64041929 7.08155524 2.83400518 0.35016079 -3.48047857  
192 
Lattice=" 11.79443920 0.00000000 0.00000000 -0.00000053 11.79443920 0.00000000 -0.00000053 -0.00000053 11.79443920 " Properties="species:S:1:pos:R:3:forces:R:3" 
O 7.18739068 9.49576750 2.57137789 -0.23010872 -0.80059055 -1.07273683  
H 6.43040268 8.92219232 2.02712442 2.31662694 1.07964796 0.96460131  
H 7.54283901 10.34128684 2.17534696 -0.19640822 -0.53264031 -0.04648146  
O 1.96390891 11.58077862 11.22120270 1.04177044 3.27512959 0.54828805  
H 1.56371865 10.71721433 11.07890695 -1.06145996 0.00170876 -0.63385441  
H 1.53959346 0.68053247 11.01699322 0.32439987 -2.54083755 0.01670909  
O 4.70866113 0.05148947 9.94509186 -6.55266574 -0.15438403 2.79926956  
H 3.68174513 11.80361514 9.59943331 3.97422836 0.21805949 0.99498662  
H 5.38432518 0.14721763 9.33701433 2.18987149 0.08558076 -3.34292962  
O 8.54208433 8.42989876 11.37238863 -1.85479999 0.64838116 3.28250352  
H 9.04469684 8.19123984 0.46640938 -0.82289745 1.33246467 -1.87159445  
H 7.72879188 8.99511294 11.62385364 2.17672800 -1.55096228 -0.53888810  
O 9.50206471 4.83477994 8.75566025 -2.67682841 2.73870462 -1.41913661  
H 9.80142025 5.70415988 9.67351812 -1.18631794 -0.75229492 -0.87760541  
H 8.95341378 5.61049552 8.14964651 2.67143938 -3.79538746 3.59411111  
O 10.53999288 8.37994444 1.39120159 -0.37398876 1.40956695 0.55244810  
H 10.67588559 9.15270191 2.00416872 -0.23087645 -1.65998740 -0.83347498  
H 10.73716431 7.55014165 1.84900867 0.22949577 0.35268716 -0.26777437  
O 10.94031544 7.51257007 8.26749428 4.59299553 -1.80870009 0.93434455  
H 9.25176389 5.98404171 6.46776259 7.50294600 -2.87052515 -2.21050203  
H 0.26079229 6.95418228 8.37534059 -6.25750293 2.35389768 -0.93452453  
O 2.25363873 6.29054115 4.87479632 0.73651348 -1.01773576 -0.69022845  
H 3.07530276 5.78163142 5.21481913 -0.78880975 0.81090068 0.02444452  
H 2.06288622 5.96054624 3.94384661 0.55846963 0.40349938 0.45678553  